 Gaussian 03, Revision D.01,
 Gaussian 03:  AM64L-G03RevD.01 13-Oct-2005

 ------------------------------------
 # opt=(addred) b3lyp/6-31g(d) nosymm
 ------------------------------------

 -------------------
 Title Card Required
 -------------------
 Symbolic Z-matrix:
 Charge =  0 Multiplicity = 2

 SCF Done:  E(UB+HF-LYP) =  -383.344545163     A.U. after   17 cycles
 Optimization completed.
    -- Stationary point found.
 SCF Done:  E(UB+HF-LYP) =  -383.343279243     A.U. after   13 cycles
 SCF Done:  E(UB+HF-LYP) =  -383.344124417     A.U. after   13 cycles
 SCF Done:  E(UB+HF-LYP) =  -383.344149922     A.U. after   11 cycles
 SCF Done:  E(UB+HF-LYP) =  -383.344153530     A.U. after   10 cycles
 SCF Done:  E(UB+HF-LYP) =  -383.344154685     A.U. after    9 cycles
 SCF Done:  E(UB+HF-LYP) =  -383.344155340     A.U. after    9 cycles
 SCF Done:  E(UB+HF-LYP) =  -383.344155497     A.U. after    8 cycles
 SCF Done:  E(UB+HF-LYP) =  -383.344155728     A.U. after    9 cycles
 SCF Done:  E(UB+HF-LYP) =  -383.344155902     A.U. after    8 cycles
 Optimization completed.
 SCF Done:  E(UB+HF-LYP) =  -383.343706238     A.U. after   13 cycles
 SCF Done:  E(UB+HF-LYP) =  -383.343708753     A.U. after   11 cycles
 SCF Done:  E(UB+HF-LYP) =  -383.343471040     A.U. after   13 cycles
 SCF Done:  E(UB+HF-LYP) =  -383.344346142     A.U. after   13 cycles
 SCF Done:  E(UB+HF-LYP) =  -383.344349870     A.U. after   11 cycles
 SCF Done:  E(UB+HF-LYP) =  -383.344349896     A.U. after    8 cycles
    -- Stationary point found.
 SCF Done:  E(UB+HF-LYP) =  -383.343659008     A.U. after   13 cycles
 SCF Done:  E(UB+HF-LYP) =  -383.344522497     A.U. after   13 cycles
 SCF Done:  E(UB+HF-LYP) =  -383.344526026     A.U. after   11 cycles
 SCF Done:  E(UB+HF-LYP) =  -383.344526076     A.U. after    8 cycles
 Optimization completed.
    -- Stationary point found.

                          Input orientation:
 ---------------------------------------------------------------------
 Center     Atomic     Atomic              Coordinates (Angstroms)
 Number     Number      Type              X           Y           Z
 ---------------------------------------------------------------------
    1          6             0       -0.949338   -0.066165    0.056389
    2          1             0       -1.748724   -0.270885   -0.666336
    3          1             0       -0.541042   -1.018167    0.416716
    4          6             0       -1.415420    0.784579    1.201347
    5          6             0       -0.809203    0.567889    2.555034
    6          1             0       -0.860371   -0.488378    2.852978
    7          1             0        0.262838    0.830628    2.571460
    8          1             0       -1.306209    1.162352    3.330508
    9          6             0       -2.163160    2.047094    0.913216
   10          1             0       -2.867510    1.917300    0.087065
   11          1             0       -2.720161    2.390001    1.795431
   12          8             0       -1.293640    3.130903    0.460893
   13          1             0       -0.613126    3.259977    1.141988
   14          8             0        0.156371    0.529013   -0.657162
   15          8             0       -0.389429    1.501058   -1.585141
   16          1             0       -0.519567    2.276256   -0.988608
 ---------------------------------------------------------------------

 Alpha  occ. eigenvalues --  -19.19038 -19.17567 -19.17105 -10.24839 -10.23417
 Alpha  occ. eigenvalues --  -10.21425 -10.19946  -1.09379  -1.03716  -0.88909
 Alpha  occ. eigenvalues --   -0.80430  -0.70634  -0.67857  -0.57436  -0.52357
 Alpha  occ. eigenvalues --   -0.50744  -0.48253  -0.46325  -0.44043  -0.42535
 Alpha  occ. eigenvalues --   -0.41685  -0.41028  -0.38615  -0.36442  -0.34823
 Alpha  occ. eigenvalues --   -0.29952  -0.27399  -0.25745  -0.21080
 Alpha virt. eigenvalues --    0.04309   0.05810   0.09743   0.12235   0.13259
 Alpha virt. eigenvalues --    0.14191   0.14548   0.15869   0.17553   0.18884
 Alpha virt. eigenvalues --    0.19787   0.21316   0.23876   0.29929   0.31536

  Beta  occ. eigenvalues --  -19.18821 -19.17332 -19.17112 -10.24923 -10.23502
  Beta  occ. eigenvalues --  -10.20125 -10.20021  -1.09105  -1.03165  -0.88577
  Beta  occ. eigenvalues --   -0.78702  -0.70366  -0.67590  -0.56206  -0.51897
  Beta  occ. eigenvalues --   -0.50449  -0.47833  -0.45588  -0.43033  -0.41934
  Beta  occ. eigenvalues --   -0.41480  -0.40487  -0.38349  -0.36085  -0.34437
  Beta  occ. eigenvalues --   -0.29448  -0.26863  -0.25454
  Beta virt. eigenvalues --   -0.07684   0.04534   0.06224   0.09829   0.12347
  Beta virt. eigenvalues --    0.13333   0.14553   0.14929   0.16071   0.18208
  Beta virt. eigenvalues --    0.19421   0.20547   0.22533   0.25023   0.30726

 Mulliken atomic charges:
              1
     1  C   -0.062109
     2  H    0.152806
     3  H    0.147080
     4  C    0.094629
     5  C   -0.509708
     6  H    0.167172
     7  H    0.170331
     8  H    0.153146
     9  C   -0.105265
    10  H    0.168935
    11  H    0.143345
    12  O   -0.613970
    13  H    0.400233
    14  O   -0.291195
    15  O   -0.445647
    16  H    0.430216
 Sum of Mulliken charges=   0.00000

 Dipole moment (field-independent basis, Debye):
    X=    -1.2409    Y=    -0.0082    Z=     3.8896  Tot=     4.0827
 Quadrupole moment (field-independent basis, Debye-Ang):
   XX=   -40.7237   YY=   -40.8622   ZZ=   -42.3340
   XY=     0.8938   XZ=    -0.8725   YZ=     5.7630

 Normal termination of Gaussian 03 at Tue Aug 13 13:26:31 2013.
