 Gaussian 03, Revision D.01,
 Gaussian 03:  AM64L-G03RevD.01 13-Oct-2005

 --------------------------------------------------------
 # opt=(addred,ts,noeigentest) b3lyp/6-31g(d) nosymm freq
 --------------------------------------------------------

 -------------------
 Title Card Required
 -------------------
 Symbolic Z-matrix:
 Charge =  0 Multiplicity = 2

 SCF Done:  E(UB+HF-LYP) =  -383.338642226     A.U. after   22 cycles
 SCF Done:  E(UB+HF-LYP) =  -383.338429858     A.U. after   16 cycles
 SCF Done:  E(UB+HF-LYP) =  -383.338149937     A.U. after   16 cycles
 SCF Done:  E(UB+HF-LYP) =  -383.337746488     A.U. after   15 cycles
 SCF Done:  E(UB+HF-LYP) =  -383.337253924     A.U. after   16 cycles
 SCF Done:  E(UB+HF-LYP) =  -383.336727144     A.U. after   18 cycles
 SCF Done:  E(UB+HF-LYP) =  -383.336374364     A.U. after   19 cycles
 SCF Done:  E(UB+HF-LYP) =  -383.337262845     A.U. after   20 cycles
 SCF Done:  E(UB+HF-LYP) =  -383.336505152     A.U. after   20 cycles
 SCF Done:  E(UB+HF-LYP) =  -383.336983402     A.U. after   17 cycles
 Optimization completed.
    -- Stationary point found.
 Optimization completed.
 SCF Done:  E(UB+HF-LYP) =  -383.338490898     A.U. after   11 cycles
 SCF Done:  E(UB+HF-LYP) =  -383.338653829     A.U. after   16 cycles
 SCF Done:  E(UB+HF-LYP) =  -383.338657401     A.U. after   14 cycles
 SCF Done:  E(UB+HF-LYP) =  -383.338657596     A.U. after   12 cycles
 SCF Done:  E(UB+HF-LYP) =  -383.338748336     A.U. after   16 cycles
 SCF Done:  E(UB+HF-LYP) =  -383.338753448     A.U. after   14 cycles
 SCF Done:  E(UB+HF-LYP) =  -383.338753568     A.U. after   11 cycles
 SCF Done:  E(UB+HF-LYP) =  -383.338753589     A.U. after   10 cycles
 SCF Done:  E(UB+HF-LYP) =  -383.338753624     A.U. after   10 cycles
    -- Stationary point found.
 Normal termination of Gaussian 03 at Thu Jun  6 23:14:17 2013.

 ------------------------------------------------------------------
 #N Geom=AllCheck Guess=Read SCRF=Check GenChk UB3LYP/6-31G(d) Freq
 ------------------------------------------------------------------

 Title Card Required
 -------------------
 Redundant internal coordinates taken from checkpoint file:
 TS1scan.chk
 Charge =  0 Multiplicity = 2

                          Input orientation:
 ---------------------------------------------------------------------
 Center     Atomic     Atomic              Coordinates (Angstroms)
 Number     Number      Type              X           Y           Z
 ---------------------------------------------------------------------
    1          6             0        0.020956    0.125320    0.113253
    2          1             0        0.731041   -0.079050   -0.678537
    3          8             0       -0.167004    1.430234    0.324380
    4          1             0       -0.827520    1.553449    1.028814
    5          6             0       -0.783331   -0.960812    0.733559
    6          6             0       -0.022335   -2.284602    0.833544
    7          1             0        0.533947   -2.475763   -0.090598
    8          1             0        0.680593   -2.285107    1.673968
    9          1             0       -0.748753   -3.090233    0.967303
   10          6             0       -1.489636   -0.596728    2.042676
   11          1             0       -2.093536    0.313798    1.936654
   12          1             0       -2.188731   -1.398763    2.291455
   13          1             0       -0.780625   -0.472598    2.869149
   14          8             0       -1.648486   -0.911738   -0.377582
   15          8             0       -2.884391   -2.131021   -0.150475
   16          1             0       -2.745179   -2.487968   -1.045532
 ---------------------------------------------------------------------

 SCF Done:  E(UB+HF-LYP) =  -383.338753624     A.U. after    1 cycles

 Alpha  occ. eigenvalues --  -19.22176 -19.16330 -19.14134 -10.28199 -10.25533
 Alpha  occ. eigenvalues --  -10.18775 -10.17829  -1.10465  -1.01395  -0.92124
 Alpha  occ. eigenvalues --   -0.77064  -0.71121  -0.69277  -0.60274  -0.51729
 Alpha  occ. eigenvalues --   -0.49608  -0.46416  -0.43992  -0.42789  -0.41842
 Alpha  occ. eigenvalues --   -0.40525  -0.39420  -0.39143  -0.36605  -0.35574
 Alpha  occ. eigenvalues --   -0.32708  -0.27851  -0.24109  -0.18826
 Alpha virt. eigenvalues --   -0.03182   0.04880   0.09648   0.11348   0.13121
 Alpha virt. eigenvalues --    0.14167   0.15278   0.17192   0.18837   0.19999
 Alpha virt. eigenvalues --    0.21117   0.22332   0.23273   0.27924   0.32585

  Beta  occ. eigenvalues --  -19.21765 -19.16418 -19.12823 -10.27401 -10.25591
  Beta  occ. eigenvalues --  -10.18770 -10.17808  -1.09540  -1.00845  -0.89494
  Beta  occ. eigenvalues --   -0.76870  -0.70494  -0.68489  -0.59967  -0.51371
  Beta  occ. eigenvalues --   -0.49290  -0.45535  -0.43113  -0.42034  -0.41104
  Beta  occ. eigenvalues --   -0.39708  -0.38951  -0.38004  -0.36552  -0.35330
  Beta  occ. eigenvalues --   -0.30092  -0.27284  -0.23347
  Beta virt. eigenvalues --   -0.07421   0.01445   0.05079   0.09856   0.11796
  Beta virt. eigenvalues --    0.13392   0.14310   0.15592   0.17225   0.19310
  Beta virt. eigenvalues --    0.20059   0.21370   0.22771   0.23405   0.28449

 Mulliken atomic charges:
              1
     1  C    0.118895
     2  H    0.180992
     3  O   -0.523416
     4  H    0.430574
     5  C    0.331902
     6  C   -0.472868
     7  H    0.143649
     8  H    0.140193
     9  H    0.178323
    10  C   -0.491202
    11  H    0.136264
    12  H    0.197867
    13  H    0.145857
    14  O   -0.388254
    15  O   -0.514224
    16  H    0.385449
 Sum of Mulliken charges=   0.00000

 Dipole moment (field-independent basis, Debye):
    X=     2.1286    Y=     0.5581    Z=     1.1939  Tot=     2.5035
 Quadrupole moment (field-independent basis, Debye-Ang):
   XX=   -49.9668   YY=   -41.4927   ZZ=   -38.0248
   XY=    -4.5827   XZ=    -1.0165   YZ=     3.8031

  Exact polarizability:  70.535  20.605  72.918   2.385   5.972  51.883
 Approx polarizability: 123.221  49.111 113.328   6.343   8.382  72.150

 ******    1 imaginary frequencies (negative Signs) ******

                     1                      2                      3
                     A                      A                      A
 Frequencies --  -556.0124               105.3983               143.1813
 Red. masses --    13.8354                 4.0989                 3.5186
 Frc consts  --     2.5201                 0.0268                 0.0425
 IR Inten    --   305.4042                 4.1992                 1.1369

                     4                      5                      6
                     A                      A                      A
 Frequencies --   185.9055               195.9529               222.6309
 Red. masses --     1.0901                 1.4645                 1.6763
 Frc consts  --     0.0222                 0.0331                 0.0490
 IR Inten    --    99.8389                12.5550                 0.8872

                     7                      8                      9
                     A                      A                      A
 Frequencies --   247.6702               277.0845               326.1769
 Red. masses --     1.5326                 1.8018                 2.5332
 Frc consts  --     0.0554                 0.0815                 0.1588
 IR Inten    --     1.2557                 4.0553                 8.5491

                    10                     11                     12
                     A                      A                      A
 Frequencies --   372.2472               396.0047               448.4440
 Red. masses --     2.3406                 2.9034                 3.9483
 Frc consts  --     0.1911                 0.2683                 0.4678
 IR Inten    --     3.0482                 8.7368                14.4060

                    13                     14                     15
                     A                      A                      A
 Frequencies --   484.7006               567.1757               695.3408
 Red. masses --     2.1576                 2.8266                 1.1590
 Frc consts  --     0.2987                 0.5357                 0.3302
 IR Inten    --    37.7381                 1.9310                69.6376

                    16                     17                     18
                     A                      A                      A
 Frequencies --   755.7433               887.4494               939.8036
 Red. masses --     3.3989                 2.3085                 1.4559
 Frc consts  --     1.1438                 1.0712                 0.7577
 IR Inten    --    12.6043                11.7915                 8.2005

                    19                     20                     21
                     A                      A                      A
 Frequencies --   971.4870              1013.8291              1034.0285
 Red. masses --     1.2604                 1.3114                 1.7129
 Frc consts  --     0.7009                 0.7942                 1.0791
 IR Inten    --    83.1526                 1.8866                12.8271

                    22                     23                     24
                     A                      A                      A
 Frequencies --  1178.0817              1195.3888              1235.0648
 Red. masses --     2.2175                 1.5839                 3.0243
 Frc consts  --     1.8133                 1.3335                 2.7180
 IR Inten    --    10.3866                89.6716               186.5331

                    25                     26                     27
                     A                      A                      A
 Frequencies --  1312.7500              1376.1543              1420.7818
 Red. masses --     2.1710                 1.8067                 1.3203
 Frc consts  --     2.2043                 2.0159                 1.5703
 IR Inten    --     7.2442                30.4224                14.8547

                    28                     29                     30
                     A                      A                      A
 Frequencies --  1432.9542              1491.5406              1500.2795
 Red. masses --     1.2519                 1.3161                 1.2073
 Frc consts  --     1.5146                 1.7251                 1.6010
 IR Inten    --     9.8734                47.9578                29.5525

                    31                     32                     33
                     A                      A                      A
 Frequencies --  1525.1118              1531.3699              1546.7977
 Red. masses --     1.1365                 1.2336                 1.0504
 Frc consts  --     1.5575                 1.7044                 1.4808
 IR Inten    --    21.3426                61.7488                 8.6938

                    34                     35                     36
                     A                      A                      A
 Frequencies --  3042.7838              3057.9098              3109.5130
 Red. masses --     1.0416                 1.0364                 1.0989
 Frc consts  --     5.6819                 5.7098                 6.2600
 IR Inten    --    24.3045                13.1778                27.3394

                    37                     38                     39
                     A                      A                      A
 Frequencies --  3124.8945              3151.3450              3155.7491
 Red. masses --     1.1029                 1.1005                 1.0991
 Frc consts  --     6.3456                 6.4392                 6.4491
 IR Inten    --    30.1345                 2.2009                 5.2539

                    40                     41                     42
                     A                      A                      A
 Frequencies --  3257.0456              3705.2309              3736.9269
 Red. masses --     1.0905                 1.0646                 1.0681
 Frc consts  --     6.8161                 8.6116                 8.7880
 IR Inten    --     6.7792                58.6331                26.2009

 - Thermochemistry -
 -------------------
 Temperature   298.150 Kelvin.  Pressure   1.00000 Atm.
 Atom  1 has atomic number  6 and mass  12.00000

 Molecular mass:   105.05517 amu.
 Principal axes and moments of inertia in atomic units:
                           1         2         3
     EIGENVALUES --   507.18801 962.377931039.87170
           X            0.56092   0.63657  -0.52929
           Y            0.82286  -0.49891   0.27200
           Z            0.09092   0.58810   0.80366
 This molecule is an asymmetric top.
 Rotational symmetry number  1.
 Warning -- assumption of classical behavior for rotation
           may cause significant error
 Rotational temperatures (Kelvin)      0.17077     0.09000     0.08329
 Rotational constants (GHZ):           3.55833     1.87529     1.73554
    1 imaginary frequencies ignored.
 Zero-point vibrational energy     337095.3 (Joules/Mol)
                                   80.56770 (Kcal/Mol)
 Warning -- explicit consideration of  13 degrees of freedom as
           vibrations may cause significant error
 Vibrational temperatures:    151.64   206.01   267.48   281.93   320.32
          (Kelvin)            356.34   398.66   469.30   535.58   569.76
                              645.21   697.38   816.04  1000.44  1087.34
                             1276.84  1352.17  1397.75  1458.67  1487.73
                             1694.99  1719.90  1776.98  1888.75  1979.98
                             2044.19  2061.70  2145.99  2158.57  2194.29
                             2203.30  2225.49  4377.88  4399.64  4473.89
                             4496.02  4534.08  4540.41  4686.16  5330.99
                             5376.60

 Zero-point correction=                           0.128393 (Hartree/Particle)
 Thermal correction to Energy=                    0.137462
 Thermal correction to Enthalpy=                  0.138407
 Thermal correction to Gibbs Free Energy=         0.094961
 Sum of electronic and zero-point Energies=           -383.210361
 Sum of electronic and thermal Energies=              -383.201291
 Sum of electronic and thermal Enthalpies=            -383.200347
 Sum of electronic and thermal Free Energies=         -383.243793

                     E (Thermal)             CV                S
                      KCal/Mol        Cal/Mol-Kelvin    Cal/Mol-Kelvin
 Total                   86.259             32.247             91.440
 Electronic               0.000              0.000              1.377
 Translational            0.889              2.981             39.865
 Rotational               0.889              2.981             27.720
 Vibrational             84.482             26.286             22.477
 Vibration  1             0.605              1.945              3.352
 Vibration  2             0.616              1.910              2.761
 Vibration  3             0.632              1.859              2.268
 Vibration  4             0.636              1.846              2.171
 Vibration  5             0.648              1.807              1.938
 Vibration  6             0.661              1.767              1.747
 Vibration  7             0.678              1.716              1.552
 Vibration  8             0.710              1.623              1.279
 Vibration  9             0.744              1.529              1.071
 Vibration 10             0.763              1.479              0.977
 Vibration 11             0.807              1.364              0.800
 Vibration 12             0.841              1.284              0.698
 Vibration 13             0.923              1.102              0.510

 Optimization completed.
    -- Stationary point found.
 Normal termination of Gaussian 03 at Thu Jun  6 23:18:28 2013.
