 Gaussian 03, Revision B.05,
 Gaussian 03:  x86-Linux-G03RevB.05 24-Oct-2003

 ------------------------------------
 # cbs-qb3 nosym optcyc=100 scf=tight
 ------------------------------------

 -------------
 vinyl radical
 -------------
 Symbolic Z-matrix:
 Charge =  0 Multiplicity = 2

 SCF Done:  E(UB+HF-LYP) =  -77.9263823691     A.U. after   16 cycles
 SCF Done:  E(UB+HF-LYP) =  -77.9270295826     A.U. after   13 cycles
 SCF Done:  E(UB+HF-LYP) =  -77.9270327034     A.U. after   10 cycles
 Optimization completed.
    -- Stationary point found.
 Normal termination of Gaussian 03 at Fri Feb  9 01:15:59 2007.

 -------------------------------------------------------
 #N Geom=AllCheck Guess=Read SCRF=Check B3LYP/CBSB7 Freq
 -------------------------------------------------------

 vinyl radical
 -------------
 Redundant internal coordinates taken from checkpoint file:
 test.chk
 Charge =  0 Multiplicity = 2

 SCF Done:  E(UB+HF-LYP) =  -77.9270327034     A.U. after    1 cycles

  Exact polarizability:  29.237   0.000  11.992   5.696   0.000  20.831
 Approx polarizability:  42.698   0.000  15.435  11.804   0.000  29.102

                     1                      2                      3
                     A                      A                      A
 Frequencies --   712.3139               819.3467               921.3709
 Red. masses --     1.0565                 1.2510                 1.2344
 Frc consts  --     0.3158                 0.4948                 0.6174
 IR Inten    --    24.6912                18.1986                78.1091

                     4                      5                      6
                     A                      A                      A
 Frequencies --  1046.5868              1390.8281              1649.7281
 Red. masses --     1.5049                 1.1039                 5.4335
 Frc consts  --     0.9712                 1.2582                 8.7128
 IR Inten    --     9.6079                 8.9093                 1.9543

                     7                      8                      9
                     A                      A                      A
 Frequencies --  3039.2866              3134.5802              3234.7380
 Red. masses --     1.0620                 1.1019                 1.1057
 Frc consts  --     5.7797                 6.3793                 6.8166
 IR Inten    --     6.1187                 5.7957                 0.7579

 - Thermochemistry -
 -------------------
 Temperature   298.150 Kelvin.  Pressure   1.00000 Atm.
 Atom  1 has atomic number  6 and mass  12.00000

 Molecular mass:    27.02348 amu.
 Principal axes and moments of inertia in atomic units:
                           1         2         3
     EIGENVALUES --     7.62518  55.22959  62.85477
           X            0.88923  -0.45745   0.00000
           Y            0.00000   0.00000   1.00000
           Z            0.45745   0.88923   0.00000
 This molecule is an asymmetric top.
 Rotational symmetry number  1.
 Rotational temperatures (Kelvin)     11.35892     1.56825     1.37800
 Rotational constants (GHZ):         236.68187    32.67707    28.71288
 Zero-point vibrational energy      95394.9 (Joules/Mol)
                                   22.79992 (Kcal/Mol)
 Vibrational temperatures:   1024.86  1178.86  1325.65  1505.80  2001.09
          (Kelvin)           2373.59  4372.85  4509.96  4654.06

 Zero-point correction=                           0.036334 (Hartree/Particle)
 Thermal correction to Energy=                    0.039438
 Thermal correction to Enthalpy=                  0.040382
 Thermal correction to Gibbs Free Energy=         0.013855
 Sum of electronic and zero-point Energies=            -77.890699
 Sum of electronic and thermal Energies=               -77.887594
 Sum of electronic and thermal Enthalpies=             -77.886650
 Sum of electronic and thermal Free Energies=          -77.913178

                     E (Thermal)             CV                S
                      KCal/Mol        Cal/Mol-Kelvin    Cal/Mol-Kelvin
 Total                   24.748              8.341             55.831
 Electronic               0.000              0.000              1.377
 Translational            0.889              2.981             35.818
 Rotational               0.889              2.981             17.922
 Vibrational             22.970              2.379              0.715

 Optimization completed.
    -- Stationary point found.
 Normal termination of Gaussian 03 at Fri Feb  9 01:18:01 2007.

 ---------------------------------------------------------
 #N Geom=AllCheck Guess=Read SCRF=Check CCSD(T)/6-31+G(d')
 ---------------------------------------------------------

 vinyl radical
 -------------
 Redundant internal coordinates taken from checkpoint file:
 test.chk
 Charge =  0 Multiplicity = 2

 SCF Done:  E(UHF) =  -77.3922121662     A.U. after   18 cycles
 CCSD(T)= -0.77656515886D+02
 \CCSD=-77.6478029\CCSD(T)=-77.6565159\S2=0.946085\S2-1=0.902057\S2A=0.
 Normal termination of Gaussian 03 at Fri Feb  9 01:19:30 2007.

 ---------------------------------------------------
 #N Geom=AllCheck Guess=Read SCRF=Check MP4SDQ/CBSB4
 ---------------------------------------------------

 vinyl radical
 -------------
 Redundant internal coordinates taken from checkpoint file:
 test.chk
 Charge =  0 Multiplicity = 2

 SCF Done:  E(UHF) =  -77.3974300097     A.U. after   14 cycles
 Normal termination of Gaussian 03 at Fri Feb  9 01:19:52 2007.

 ----------------------------------------------------------------------
 #N Geom=AllCheck Guess=Read SCRF=Check MP2/CBSB3 CBSExtrap=(NMin=10,Mi
 nPop)
 ----------------------------------------------------------------------

 vinyl radical
 -------------
 Redundant internal coordinates taken from checkpoint file:
 test.chk
 Charge =  0 Multiplicity = 2

                          Input orientation:
 ---------------------------------------------------------------------
 Center     Atomic     Atomic              Coordinates (Angstroms)
 Number     Number      Type              X           Y           Z
 ---------------------------------------------------------------------
    1          6             0       -0.000494    0.000000   -0.003593
    2          1             0        0.001010    0.000000    1.090037
    3          1             0        0.977493    0.000000   -0.480756
    4          6             0       -1.108564    0.000000   -0.692294
    5          1             0       -2.173359    0.000000   -0.509734
 ---------------------------------------------------------------------

 SCF Done:  E(UHF) =  -77.4179592085     A.U. after   13 cycles
 E2 =    -0.2804086627D+00 EUMP2 =    -0.77698367871189D+02
 E2(CBS)=      -0.308894 CBS-Int=       0.009991 OIii=       2.527342

 Alpha  occ. eigenvalues --  -11.25725 -11.22586  -1.05073  -0.78957  -0.63746
 Alpha  occ. eigenvalues --   -0.60265  -0.41027  -0.40127
 Alpha virt. eigenvalues --    0.04710   0.05943   0.06635   0.10532   0.12886
 Alpha virt. eigenvalues --    0.13228   0.14257   0.18680   0.18790   0.20947
 Alpha virt. eigenvalues --    0.21794   0.23062   0.26429   0.27934   0.37660

  Beta  occ. eigenvalues --  -11.23854 -11.22230  -1.01815  -0.73957  -0.61487
  Beta  occ. eigenvalues --   -0.57244  -0.39733
  Beta virt. eigenvalues --    0.04689   0.05994   0.06549   0.08598   0.11296
  Beta virt. eigenvalues --    0.12876   0.14193   0.17121   0.18836   0.20201
  Beta virt. eigenvalues --    0.21078   0.22789   0.24629   0.26511   0.29212

 Mulliken atomic charges:
              1
     1  C   -0.201812
     2  H    0.066913
     3  H    0.082407
     4  C   -0.047581
     5  H    0.100074
 Sum of Mulliken charges=   0.00000

 Dipole moment (field-independent basis, Debye):
    X=    -0.1048    Y=     0.0000    Z=     0.6059  Tot=     0.6149
 Quadrupole moment (field-independent basis, Debye-Ang):
   XX=   -10.5585   YY=   -15.0388   ZZ=   -13.4959
   XY=     0.0000   XZ=    -0.3122   YZ=     0.0000

 Normal termination of Gaussian 03 at Fri Feb  9 01:20:45 2007.
